title = "Heterogeneous K Field"
variables = "x", "y", "z", "kxx", "kyy", "kzz"
zone t = "field", i=160, j=40, k=1, f=point
0.000000e+00  0.000000e+00  0.000000e+00  1.431704e+00  1.431704e+00  1.431704e+00
2.515723e+00  0.000000e+00  0.000000e+00  7.468991e-01  7.468991e-01  7.468991e-01
5.031447e+00  0.000000e+00  0.000000e+00  4.089589e-01  4.089589e-01  4.089589e-01
7.547170e+00  0.000000e+00  0.000000e+00  2.785189e-01  2.785189e-01  2.785189e-01
1.006289e+01  0.000000e+00  0.000000e+00  1.964024e-01  1.964024e-01  1.964024e-01
1.257862e+01  0.000000e+00  0.000000e+00  7.918378e-02  7.918378e-02  7.918378e-02
1.509434e+01  0.000000e+00  0.000000e+00  4.537227e-02  4.537227e-02  4.537227e-02
1.761006e+01  0.000000e+00  0.000000e+00  1.000813e-01  1.000813e-01  1.000813e-01
2.012579e+01  0.000000e+00  0.000000e+00  2.808567e-01  2.808567e-01  2.808567e-01
2.264151e+01  0.000000e+00  0.000000e+00  4.278733e-01  4.278733e-01  4.278733e-01
2.515723e+01  0.000000e+00  0.000000e+00  6.881753e-01  6.881753e-01  6.881753e-01
2.767296e+01  0.000000e+00  0.000000e+00  9.568518e-01  9.568518e-01  9.568518e-01
3.018868e+01  0.000000e+00  0.000000e+00  7.739264e-01  7.739264e-01  7.739264e-01
3.270440e+01  0.000000e+00  0.000000e+00  1.127472e+00  1.127472e+00  1.127472e+00
3.522013e+01  0.000000e+00  0.000000e+00  3.186877e+00  3.186877e+00  3.186877e+00
3.773585e+01  0.000000e+00  0.000000e+00  3.530527e+00  3.530527e+00  3.530527e+00
4.025157e+01  0.000000e+00  0.000000e+00  1.896121e+00  1.896121e+00  1.896121e+00
4.276730e+01  0.000000e+00  0.000000e+00  1.855228e+00  1.855228e+00  1.855228e+00
4.528302e+01  0.000000e+00  0.000000e+00  1.870475e+00  1.870475e+00  1.870475e+00
4.779874e+01  0.000000e+00  0.000000e+00  1.121163e+00  1.121163e+00  1.121163e+00
5.031447e+01  0.000000e+00  0.000000e+00  1.076875e+00  1.076875e+00  1.076875e+00
5.283019e+01  0.000000e+00  0.000000e+00  1.564039e+00  1.564039e+00  1.564039e+00
5.534591e+01  0.000000e+00  0.000000e+00  1.309505e+00  1.309505e+00  1.309505e+00
5.786164e+01  0.000000e+00  0.000000e+00  9.743927e-01  9.743927e-01  9.743927e-01
6.037736e+01  0.000000e+00  0.000000e+00  1.020026e+00  1.020026e+00  1.020026e+00
6.289308e+01  0.000000e+00  0.000000e+00  8.613401e-01  8.613401e-01  8.613401e-01
6.540881e+01  0.000000e+00  0.000000e+00  8.923502e-01  8.923502e-01  8.923502e-01
6.792453e+01  0.000000e+00  0.000000e+00  2.456111e+00  2.456111e+00  2.456111e+00
7.044025e+01  0.000000e+00  0.000000e+00  6.166700e+00  6.166700e+00  6.166700e+00
7.295597e+01  0.000000e+00  0.000000e+00  4.121962e+00  4.121962e+00  4.121962e+00
7.547170e+01  0.000000e+00  0.000000e+00  1.363386e+00  1.363386e+00  1.363386e+00
7.798742e+01  0.000000e+00  0.000000e+00  6.059867e-01  6.059867e-01  6.059867e-01
8.050314e+01  0.000000e+00  0.000000e+00  4.432047e-01  4.432047e-01  4.432047e-01
8.301887e+01  0.000000e+00  0.000000e+00  5.086760e-01  5.086760e-01  5.086760e-01
8.553459e+01  0.000000e+00  0.000000e+00  6.451762e-01  6.451762e-01  6.451762e-01
8.805031e+01  0.000000e+00  0.000000e+00  5.209766e-01  5.209766e-01  5.209766e-01
9.056604e+01  0.000000e+00  0.000000e+00  2.950205e-01  2.950205e-01  2.950205e-01
9.308176e+01  0.000000e+00  0.000000e+00  2.129967e-01  2.129967e-01  2.129967e-01
9.559748e+01  0.000000e+00  0.000000e+00  2.634931e-01  2.634931e-01  2.634931e-01
9.811321e+01  0.000000e+00  0.000000e+00  4.865062e-01  4.865062e-01  4.865062e-01
1.006289e+02  0.000000e+00  0.000000e+00  9.694176e-01  9.694176e-01  9.694176e-01
1.031447e+02  0.000000e+00  0.000000e+00  1.751044e+00  1.751044e+00  1.751044e+00
1.056604e+02  0.000000e+00  0.000000e+00  3.091171e+00  3.091171e+00  3.091171e+00
1.081761e+02  0.000000e+00  0.000000e+00  4.850690e+00  4.850690e+00  4.850690e+00
1.106918e+02  0.000000e+00  0.000000e+00  5.603392e+00  5.603392e+00  5.603392e+00
1.132075e+02  0.000000e+00  0.000000e+00  6.013985e+00  6.013985e+00  6.013985e+00
1.157233e+02  0.000000e+00  0.000000e+00  7.382545e+00  7.382545e+00  7.382545e+00
1.182390e+02  0.000000e+00  0.000000e+00  7.222141e+00  7.222141e+00  7.222141e+00
1.207547e+02  0.000000e+00  0.000000e+00  4.195991e+00  4.195991e+00  4.195991e+00
1.232704e+02  0.000000e+00  0.000000e+00  1.905007e+00  1.905007e+00  1.905007e+00
1.257862e+02  0.000000e+00  0.000000e+00  1.083896e+00  1.083896e+00  1.083896e+00
1.283019e+02  0.000000e+00  0.000000e+00  1.079893e+00  1.079893e+00  1.079893e+00
1.308176e+02  0.000000e+00  0.000000e+00  1.785008e+00  1.785008e+00  1.785008e+00
1.333333e+02  0.000000e+00  0.000000e+00  2.894254e+00  2.894254e+00  2.894254e+00
1.358491e+02  0.000000e+00  0.000000e+00  2.893148e+00  2.893148e+00  2.893148e+00
1.383648e+02  0.000000e+00  0.000000e+00  1.860608e+00  1.860608e+00  1.860608e+00
1.408805e+02  0.000000e+00  0.000000e+00  1.216540e+00  1.216540e+00  1.216540e+00
1.433962e+02  0.000000e+00  0.000000e+00  1.233205e+00  1.233205e+00  1.233205e+00
1.459119e+02  0.000000e+00  0.000000e+00  1.323061e+00  1.323061e+00  1.323061e+00
1.484277e+02  0.000000e+00  0.000000e+00  6.937305e-01  6.937305e-01  6.937305e-01
1.509434e+02  0.000000e+00  0.000000e+00  3.149037e-01  3.149037e-01  3.149037e-01
1.534591e+02  0.000000e+00  0.000000e+00  4.287789e-01  4.287789e-01  4.287789e-01
1.559748e+02  0.000000e+00  0.000000e+00  9.326046e-01  9.326046e-01  9.326046e-01
1.584906e+02  0.000000e+00  0.000000e+00  8.502212e-01  8.502212e-01  8.502212e-01
1.610063e+02  0.000000e+00  0.000000e+00  6.576137e-01  6.576137e-01  6.576137e-01
1.635220e+02  0.000000e+00  0.000000e+00  1.230142e+00  1.230142e+00  1.230142e+00
1.660377e+02  0.000000e+00  0.000000e+00  2.713555e+00  2.713555e+00  2.713555e+00
1.685535e+02  0.000000e+00  0.000000e+00  4.350367e+00  4.350367e+00  4.350367e+00
1.710692e+02  0.000000e+00  0.000000e+00  7.636134e+00  7.636134e+00  7.636134e+00
1.735849e+02  0.000000e+00  0.000000e+00  8.233845e+00  8.233845e+00  8.233845e+00
1.761006e+02  0.000000e+00  0.000000e+00  3.829101e+00  3.829101e+00  3.829101e+00
1.786164e+02  0.000000e+00  0.000000e+00  2.663618e+00  2.663618e+00  2.663618e+00
1.811321e+02  0.000000e+00  0.000000e+00  2.953807e+00  2.953807e+00  2.953807e+00
1.836478e+02  0.000000e+00  0.000000e+00  1.132821e+00  1.132821e+00  1.132821e+00
1.861635e+02  0.000000e+00  0.000000e+00  2.528951e-01  2.528951e-01  2.528951e-01
1.886792e+02  0.000000e+00  0.000000e+00  2.082871e-01  2.082871e-01  2.082871e-01
1.911950e+02  0.000000e+00  0.000000e+00  4.341228e-01  4.341228e-01  4.341228e-01
1.937107e+02  0.000000e+00  0.000000e+00  8.476579e-01  8.476579e-01  8.476579e-01
1.962264e+02  0.000000e+00  0.000000e+00  2.786318e+00  2.786318e+00  2.786318e+00
1.987421e+02  0.000000e+00  0.000000e+00  1.129923e+01  1.129923e+01  1.129923e+01
2.012579e+02  0.000000e+00  0.000000e+00  1.331414e+01  1.331414e+01  1.331414e+01
2.037736e+02  0.000000e+00  0.000000e+00  8.949438e+00  8.949438e+00  8.949438e+00
2.062893e+02  0.000000e+00  0.000000e+00  1.483067e+01  1.483067e+01  1.483067e+01
2.088050e+02  0.000000e+00  0.000000e+00  2.332001e+01  2.332001e+01  2.332001e+01
2.113208e+02  0.000000e+00  0.000000e+00  1.401116e+01  1.401116e+01  1.401116e+01
2.138365e+02  0.000000e+00  0.000000e+00  1.363805e+01  1.363805e+01  1.363805e+01
2.163522e+02  0.000000e+00  0.000000e+00  3.635017e+01  3.635017e+01  3.635017e+01
2.188679e+02  0.000000e+00  0.000000e+00  5.355912e+01  5.355912e+01  5.355912e+01
2.213836e+02  0.000000e+00  0.000000e+00  3.128009e+01  3.128009e+01  3.128009e+01
2.238994e+02  0.000000e+00  0.000000e+00  2.347493e+01  2.347493e+01  2.347493e+01
2.264151e+02  0.000000e+00  0.000000e+00  2.486152e+01  2.486152e+01  2.486152e+01
2.289308e+02  0.000000e+00  0.000000e+00  2.408845e+01  2.408845e+01  2.408845e+01
2.314465e+02  0.000000e+00  0.000000e+00  2.481639e+01  2.481639e+01  2.481639e+01
2.339623e+02  0.000000e+00  0.000000e+00  1.738913e+01  1.738913e+01  1.738913e+01
2.364780e+02  0.000000e+00  0.000000e+00  4.884018e+00  4.884018e+00  4.884018e+00
2.389937e+02  0.000000e+00  0.000000e+00  1.515878e+00  1.515878e+00  1.515878e+00
2.415094e+02  0.000000e+00  0.000000e+00  1.393223e+00  1.393223e+00  1.393223e+00
2.440252e+02  0.000000e+00  0.000000e+00  1.896877e+00  1.896877e+00  1.896877e+00
2.465409e+02  0.000000e+00  0.000000e+00  1.838168e+00  1.838168e+00  1.838168e+00
2.490566e+02  0.000000e+00  0.000000e+00  1.403081e+00  1.403081e+00  1.403081e+00
2.515723e+02  0.000000e+00  0.000000e+00  7.164289e-01  7.164289e-01  7.164289e-01
2.540881e+02  0.000000e+00  0.000000e+00  2.713137e-01  2.713137e-01  2.713137e-01
2.566038e+02  0.000000e+00  0.000000e+00  2.141176e-01  2.141176e-01  2.141176e-01
2.591195e+02  0.000000e+00  0.000000e+00  4.453933e-01  4.453933e-01  4.453933e-01
2.616352e+02  0.000000e+00  0.000000e+00  8.074622e-01  8.074622e-01  8.074622e-01
2.641509e+02  0.000000e+00  0.000000e+00  8.009522e-01  8.009522e-01  8.009522e-01
2.666667e+02  0.000000e+00  0.000000e+00  7.695103e-01  7.695103e-01  7.695103e-01
2.691824e+02  0.000000e+00  0.000000e+00  9.037603e-01  9.037603e-01  9.037603e-01
2.716981e+02  0.000000e+00  0.000000e+00  1.158156e+00  1.158156e+00  1.158156e+00
2.742138e+02  0.000000e+00  0.000000e+00  1.714131e+00  1.714131e+00  1.714131e+00
2.767296e+02  0.000000e+00  0.000000e+00  2.517347e+00  2.517347e+00  2.517347e+00
2.792453e+02  0.000000e+00  0.000000e+00  2.902183e+00  2.902183e+00  2.902183e+00
2.817610e+02  0.000000e+00  0.000000e+00  2.932850e+00  2.932850e+00  2.932850e+00
2.842767e+02  0.000000e+00  0.000000e+00  2.562739e+00  2.562739e+00  2.562739e+00
2.867925e+02  0.000000e+00  0.000000e+00  1.628041e+00  1.628041e+00  1.628041e+00
2.893082e+02  0.000000e+00  0.000000e+00  1.120235e+00  1.120235e+00  1.120235e+00
2.918239e+02  0.000000e+00  0.000000e+00  1.427236e+00  1.427236e+00  1.427236e+00
2.943396e+02  0.000000e+00  0.000000e+00  2.444911e+00  2.444911e+00  2.444911e+00
2.968553e+02  0.000000e+00  0.000000e+00  2.961894e+00  2.961894e+00  2.961894e+00
2.993711e+02  0.000000e+00  0.000000e+00  2.668757e+00  2.668757e+00  2.668757e+00
3.018868e+02  0.000000e+00  0.000000e+00  2.693197e+00  2.693197e+00  2.693197e+00
3.044025e+02  0.000000e+00  0.000000e+00  3.012657e+00  3.012657e+00  3.012657e+00
3.069182e+02  0.000000e+00  0.000000e+00  2.951211e+00  2.951211e+00  2.951211e+00
3.094340e+02  0.000000e+00  0.000000e+00  2.886554e+00  2.886554e+00  2.886554e+00
3.119497e+02  0.000000e+00  0.000000e+00  3.473017e+00  3.473017e+00  3.473017e+00
3.144654e+02  0.000000e+00  0.000000e+00  3.530549e+00  3.530549e+00  3.530549e+00
3.169811e+02  0.000000e+00  0.000000e+00  2.077199e+00  2.077199e+00  2.077199e+00
3.194969e+02  0.000000e+00  0.000000e+00  1.133406e+00  1.133406e+00  1.133406e+00
3.220126e+02  0.000000e+00  0.000000e+00  8.210267e-01  8.210267e-01  8.210267e-01
3.245283e+02  0.000000e+00  0.000000e+00  4.733446e-01  4.733446e-01  4.733446e-01
3.270440e+02  0.000000e+00  0.000000e+00  2.311905e-01  2.311905e-01  2.311905e-01
3.295597e+02  0.000000e+00  0.000000e+00  2.194464e-01  2.194464e-01  2.194464e-01
3.320755e+02  0.000000e+00  0.000000e+00  2.976983e-01  2.976983e-01  2.976983e-01
3.345912e+02  0.000000e+00  0.000000e+00  2.648881e-01  2.648881e-01  2.648881e-01
3.371069e+02  0.000000e+00  0.000000e+00  2.909062e-01  2.909062e-01  2.909062e-01
3.396226e+02  0.000000e+00  0.000000e+00  5.338906e-01  5.338906e-01  5.338906e-01
3.421384e+02  0.000000e+00  0.000000e+00  4.579845e-01  4.579845e-01  4.579845e-01
3.446541e+02  0.000000e+00  0.000000e+00  1.661240e-01  1.661240e-01  1.661240e-01
3.471698e+02  0.000000e+00  0.000000e+00  1.017272e-01  1.017272e-01  1.017272e-01
3.496855e+02  0.000000e+00  0.000000e+00  8.892144e-02  8.892144e-02  8.892144e-02
3.522013e+02  0.000000e+00  0.000000e+00  4.401989e-02  4.401989e-02  4.401989e-02
3.547170e+02  0.000000e+00  0.000000e+00  2.548658e-02  2.548658e-02  2.548658e-02
3.572327e+02  0.000000e+00  0.000000e+00  3.044288e-02  3.044288e-02  3.044288e-02
3.597484e+02  0.000000e+00  0.000000e+00  3.481259e-02  3.481259e-02  3.481259e-02
3.622642e+02  0.000000e+00  0.000000e+00  4.671645e-02  4.671645e-02  4.671645e-02
3.647799e+02  0.000000e+00  0.000000e+00  1.824410e-01  1.824410e-01  1.824410e-01
3.672956e+02  0.000000e+00  0.000000e+00  9.988152e-01  9.988152e-01  9.988152e-01
3.698113e+02  0.000000e+00  0.000000e+00  2.466245e+00  2.466245e+00  2.466245e+00
3.723270e+02  0.000000e+00  0.000000e+00  4.446142e+00  4.446142e+00  4.446142e+00
3.748428e+02  0.000000e+00  0.000000e+00  1.186709e+01  1.186709e+01  1.186709e+01
3.773585e+02  0.000000e+00  0.000000e+00  2.508092e+01  2.508092e+01  2.508092e+01
3.798742e+02  0.000000e+00  0.000000e+00  1.698036e+01  1.698036e+01  1.698036e+01
3.823899e+02  0.000000e+00  0.000000e+00  5.305510e+00  5.305510e+00  5.305510e+00
3.849057e+02  0.000000e+00  0.000000e+00  2.669572e+00  2.669572e+00  2.669572e+00
3.874214e+02  0.000000e+00  0.000000e+00  2.930779e+00  2.930779e+00  2.930779e+00
3.899371e+02  0.000000e+00  0.000000e+00  3.340991e+00  3.340991e+00  3.340991e+00
3.924528e+02  0.000000e+00  0.000000e+00  3.661002e+00  3.661002e+00  3.661002e+00
3.949686e+02  0.000000e+00  0.000000e+00  4.172199e+00  4.172199e+00  4.172199e+00
3.974843e+02  0.000000e+00  0.000000e+00  2.118084e+00  2.118084e+00  2.118084e+00
4.000000e+02  0.000000e+00  0.000000e+00  7.174167e-01  7.174167e-01  7.174167e-01
0.000000e+00  0.000000e+00  1.538462e+00  2.089051e+00  2.089051e+00  2.089051e+00
2.515723e+00  0.000000e+00  1.538462e+00  1.780789e+00  1.780789e+00  1.780789e+00
5.031447e+00  0.000000e+00  1.538462e+00  1.529573e+00  1.529573e+00  1.529573e+00
7.547170e+00  0.000000e+00  1.538462e+00  1.274974e+00  1.274974e+00  1.274974e+00
1.006289e+01  0.000000e+00  1.538462e+00  9.213613e-01  9.213613e-01  9.213613e-01
1.257862e+01  0.000000e+00  1.538462e+00  1.123155e+00  1.123155e+00  1.123155e+00
1.509434e+01  0.000000e+00  1.538462e+00  3.050910e+00  3.050910e+00  3.050910e+00
1.761006e+01  0.000000e+00  1.538462e+00  6.981466e+00  6.981466e+00  6.981466e+00
2.012579e+01  0.000000e+00  1.538462e+00  8.747014e+00  8.747014e+00  8.747014e+00
2.264151e+01  0.000000e+00  1.538462e+00  8.287996e+00  8.287996e+00  8.287996e+00
2.515723e+01  0.000000e+00  1.538462e+00  5.099376e+00  5.099376e+00  5.099376e+00
2.767296e+01  0.000000e+00  1.538462e+00  2.595640e+00  2.595640e+00  2.595640e+00
3.018868e+01  0.000000e+00  1.538462e+00  1.970763e+00  1.970763e+00  1.970763e+00
3.270440e+01  0.000000e+00  1.538462e+00  1.219160e+00  1.219160e+00  1.219160e+00
3.522013e+01  0.000000e+00  1.538462e+00  4.371793e-01  4.371793e-01  4.371793e-01
3.773585e+01  0.000000e+00  1.538462e+00  2.846290e-01  2.846290e-01  2.846290e-01
4.025157e+01  0.000000e+00  1.538462e+00  3.764012e-01  3.764012e-01  3.764012e-01
4.276730e+01  0.000000e+00  1.538462e+00  3.492994e-01  3.492994e-01  3.492994e-01
4.528302e+01  0.000000e+00  1.538462e+00  3.152170e-01  3.152170e-01  3.152170e-01
4.779874e+01  0.000000e+00  1.538462e+00  4.568477e-01  4.568477e-01  4.568477e-01
5.031447e+01  0.000000e+00  1.538462e+00  4.622449e-01  4.622449e-01  4.622449e-01
5.283019e+01  0.000000e+00  1.538462e+00  3.506287e-01  3.506287e-01  3.506287e-01
5.534591e+01  0.000000e+00  1.538462e+00  4.417492e-01  4.417492e-01  4.417492e-01
5.786164e+01  0.000000e+00  1.538462e+00  3.980406e-01  3.980406e-01  3.980406e-01
6.037736e+01  0.000000e+00  1.538462e+00  1.493437e-01  1.493437e-01  1.493437e-01
6.289308e+01  0.000000e+00  1.538462e+00  1.029075e-01  1.029075e-01  1.029075e-01
6.540881e+01  0.000000e+00  1.538462e+00  2.184120e-01  2.184120e-01  2.184120e-01
6.792453e+01  0.000000e+00  1.538462e+00  3.840642e-01  3.840642e-01  3.840642e-01
7.044025e+01  0.000000e+00  1.538462e+00  3.420502e-01  3.420502e-01  3.420502e-01
7.295597e+01  0.000000e+00  1.538462e+00  2.381135e-01  2.381135e-01  2.381135e-01
7.547170e+01  0.000000e+00  1.538462e+00  1.790502e-01  1.790502e-01  1.790502e-01
7.798742e+01  0.000000e+00  1.538462e+00  2.623825e-01  2.623825e-01  2.623825e-01
8.050314e+01  0.000000e+00  1.538462e+00  6.402079e-01  6.402079e-01  6.402079e-01
8.301887e+01  0.000000e+00  1.538462e+00  6.547179e-01  6.547179e-01  6.547179e-01
8.553459e+01  0.000000e+00  1.538462e+00  2.621901e-01  2.621901e-01  2.621901e-01
8.805031e+01  0.000000e+00  1.538462e+00  1.821489e-01  1.821489e-01  1.821489e-01
9.056604e+01  0.000000e+00  1.538462e+00  2.646046e-01  2.646046e-01  2.646046e-01
9.308176e+01  0.000000e+00  1.538462e+00  3.293278e-01  3.293278e-01  3.293278e-01
9.559748e+01  0.000000e+00  1.538462e+00  3.742957e-01  3.742957e-01  3.742957e-01
9.811321e+01  0.000000e+00  1.538462e+00  5.058756e-01  5.058756e-01  5.058756e-01
1.006289e+02  0.000000e+00  1.538462e+00  6.238865e-01  6.238865e-01  6.238865e-01
1.031447e+02  0.000000e+00  1.538462e+00  8.669689e-01  8.669689e-01  8.669689e-01
1.056604e+02  0.000000e+00  1.538462e+00  1.682270e+00  1.682270e+00  1.682270e+00
1.081761e+02  0.000000e+00  1.538462e+00  2.376900e+00  2.376900e+00  2.376900e+00
1.106918e+02  0.000000e+00  1.538462e+00  1.929378e+00  1.929378e+00  1.929378e+00
1.132075e+02  0.000000e+00  1.538462e+00  2.076627e+00  2.076627e+00  2.076627e+00
1.157233e+02  0.000000e+00  1.538462e+00  4.348051e+00  4.348051e+00  4.348051e+00
1.182390e+02  0.000000e+00  1.538462e+00  8.365678e+00  8.365678e+00  8.365678e+00
1.207547e+02  0.000000e+00  1.538462e+00  7.409260e+00  7.409260e+00  7.409260e+00
1.232704e+02  0.000000e+00  1.538462e+00  3.955342e+00  3.955342e+00  3.955342e+00
1.257862e+02  0.000000e+00  1.538462e+00  2.780809e+00  2.780809e+00  2.780809e+00
1.283019e+02  0.000000e+00  1.538462e+00  3.865264e+00  3.865264e+00  3.865264e+00
1.308176e+02  0.000000e+00  1.538462e+00  8.685617e+00  8.685617e+00  8.685617e+00
1.333333e+02  0.000000e+00  1.538462e+00  1.778863e+01  1.778863e+01  1.778863e+01
1.358491e+02  0.000000e+00  1.538462e+00  1.699271e+01  1.699271e+01  1.699271e+01
1.383648e+02  0.000000e+00  1.538462e+00  7.712963e+00  7.712963e+00  7.712963e+00
1.408805e+02  0.000000e+00  1.538462e+00  4.138500e+00  4.138500e+00  4.138500e+00
1.433962e+02  0.000000e+00  1.538462e+00  3.124920e+00  3.124920e+00  3.124920e+00
1.459119e+02  0.000000e+00  1.538462e+00  1.351742e+00  1.351742e+00  1.351742e+00
1.484277e+02  0.000000e+00  1.538462e+00  4.595172e-01  4.595172e-01  4.595172e-01
1.509434e+02  0.000000e+00  1.538462e+00  4.191583e-01  4.191583e-01  4.191583e-01
1.534591e+02  0.000000e+00  1.538462e+00  5.226834e-01  5.226834e-01  5.226834e-01
1.559748e+02  0.000000e+00  1.538462e+00  2.619632e-01  2.619632e-01  2.619632e-01
1.584906e+02  0.000000e+00  1.538462e+00  1.497067e-01  1.497067e-01  1.497067e-01
1.610063e+02  0.000000e+00  1.538462e+00  2.569418e-01  2.569418e-01  2.569418e-01
1.635220e+02  0.000000e+00  1.538462e+00  4.400230e-01  4.400230e-01  4.400230e-01
1.660377e+02  0.000000e+00  1.538462e+00  5.302570e-01  5.302570e-01  5.302570e-01
1.685535e+02  0.000000e+00  1.538462e+00  1.004382e+00  1.004382e+00  1.004382e+00
1.710692e+02  0.000000e+00  1.538462e+00  1.592469e+00  1.592469e+00  1.592469e+00
1.735849e+02  0.000000e+00  1.538462e+00  1.121390e+00  1.121390e+00  1.121390e+00
1.761006e+02  0.000000e+00  1.538462e+00  9.652759e-01  9.652759e-01  9.652759e-01
1.786164e+02  0.000000e+00  1.538462e+00  9.719859e-01  9.719859e-01  9.719859e-01
1.811321e+02  0.000000e+00  1.538462e+00  3.212716e-01  3.212716e-01  3.212716e-01
1.836478e+02  0.000000e+00  1.538462e+00  5.848515e-02  5.848515e-02  5.848515e-02
1.861635e+02  0.000000e+00  1.538462e+00  1.892342e-02  1.892342e-02  1.892342e-02
1.886792e+02  0.000000e+00  1.538462e+00  9.306045e-03  9.306045e-03  9.306045e-03
1.911950e+02  0.000000e+00  1.538462e+00  1.025009e-02  1.025009e-02  1.025009e-02
1.937107e+02  0.000000e+00  1.538462e+00  5.247455e-02  5.247455e-02  5.247455e-02
1.962264e+02  0.000000e+00  1.538462e+00  3.588648e-01  3.588648e-01  3.588648e-01
1.987421e+02  0.000000e+00  1.538462e+00  9.351677e-01  9.351677e-01  9.351677e-01
2.012579e+02  0.000000e+00  1.538462e+00  1.859984e+00  1.859984e+00  1.859984e+00
2.037736e+02  0.000000e+00  1.538462e+00  3.752635e+00  3.752635e+00  3.752635e+00
2.062893e+02  0.000000e+00  1.538462e+00  5.045077e+00  5.045077e+00  5.045077e+00
2.088050e+02  0.000000e+00  1.538462e+00  9.870214e+00  9.870214e+00  9.870214e+00
2.113208e+02  0.000000e+00  1.538462e+00  3.848206e+01  3.848206e+01  3.848206e+01
2.138365e+02  0.000000e+00  1.538462e+00  8.659076e+01  8.659076e+01  8.659076e+01
2.163522e+02  0.000000e+00  1.538462e+00  9.203668e+01  9.203668e+01  9.203668e+01
2.188679e+02  0.000000e+00  1.538462e+00  1.031622e+02  1.031622e+02  1.031622e+02
2.213836e+02  0.000000e+00  1.538462e+00  9.708571e+01  9.708571e+01  9.708571e+01
2.238994e+02  0.000000e+00  1.538462e+00  7.808009e+01  7.808009e+01  7.808009e+01
2.264151e+02  0.000000e+00  1.538462e+00  1.086421e+02  1.086421e+02  1.086421e+02
2.289308e+02  0.000000e+00  1.538462e+00  1.090583e+02  1.090583e+02  1.090583e+02
2.314465e+02  0.000000e+00  1.538462e+00  2.423249e+01  2.423249e+01  2.423249e+01
2.339623e+02  0.000000e+00  1.538462e+00  3.839031e+00  3.839031e+00  3.839031e+00
2.364780e+02  0.000000e+00  1.538462e+00  1.676610e+00  1.676610e+00  1.676610e+00
2.389937e+02  0.000000e+00  1.538462e+00  1.195419e+00  1.195419e+00  1.195419e+00
2.415094e+02  0.000000e+00  1.538462e+00  1.000768e+00  1.000768e+00  1.000768e+00
2.440252e+02  0.000000e+00  1.538462e+00  1.383766e+00  1.383766e+00  1.383766e+00
2.465409e+02  0.000000e+00  1.538462e+00  1.573752e+00  1.573752e+00  1.573752e+00
2.490566e+02  0.000000e+00  1.538462e+00  7.833352e-01  7.833352e-01  7.833352e-01
2.515723e+02  0.000000e+00  1.538462e+00  4.103813e-01  4.103813e-01  4.103813e-01
2.540881e+02  0.000000e+00  1.538462e+00  4.081809e-01  4.081809e-01  4.081809e-01
2.566038e+02  0.000000e+00  1.538462e+00  3.780533e-01  3.780533e-01  3.780533e-01
2.591195e+02  0.000000e+00  1.538462e+00  2.555228e-01  2.555228e-01  2.555228e-01
2.616352e+02  0.000000e+00  1.538462e+00  2.474306e-01  2.474306e-01  2.474306e-01
2.641509e+02  0.000000e+00  1.538462e+00  3.485650e-01  3.485650e-01  3.485650e-01
2.666667e+02  0.000000e+00  1.538462e+00  3.665735e-01  3.665735e-01  3.665735e-01
2.691824e+02  0.000000e+00  1.538462e+00  3.252569e-01  3.252569e-01  3.252569e-01
2.716981e+02  0.000000e+00  1.538462e+00  5.038172e-01  5.038172e-01  5.038172e-01
2.742138e+02  0.000000e+00  1.538462e+00  1.228525e+00  1.228525e+00  1.228525e+00
2.767296e+02  0.000000e+00  1.538462e+00  2.422936e+00  2.422936e+00  2.422936e+00
2.792453e+02  0.000000e+00  1.538462e+00  3.673191e+00  3.673191e+00  3.673191e+00
2.817610e+02  0.000000e+00  1.538462e+00  4.235099e+00  4.235099e+00  4.235099e+00
2.842767e+02  0.000000e+00  1.538462e+00  2.159964e+00  2.159964e+00  2.159964e+00
2.867925e+02  0.000000e+00  1.538462e+00  7.115609e-01  7.115609e-01  7.115609e-01
2.893082e+02  0.000000e+00  1.538462e+00  5.999515e-01  5.999515e-01  5.999515e-01
2.918239e+02  0.000000e+00  1.538462e+00  1.213341e+00  1.213341e+00  1.213341e+00
2.943396e+02  0.000000e+00  1.538462e+00  1.428091e+00  1.428091e+00  1.428091e+00
2.968553e+02  0.000000e+00  1.538462e+00  9.969369e-01  9.969369e-01  9.969369e-01
2.993711e+02  0.000000e+00  1.538462e+00  1.302316e+00  1.302316e+00  1.302316e+00
3.018868e+02  0.000000e+00  1.538462e+00  2.745012e+00  2.745012e+00  2.745012e+00
3.044025e+02  0.000000e+00  1.538462e+00  4.476817e+00  4.476817e+00  4.476817e+00
3.069182e+02  0.000000e+00  1.538462e+00  7.858538e+00  7.858538e+00  7.858538e+00
3.094340e+02  0.000000e+00  1.538462e+00  1.842620e+01  1.842620e+01  1.842620e+01
3.119497e+02  0.000000e+00  1.538462e+00  2.735119e+01  2.735119e+01  2.735119e+01
3.144654e+02  0.000000e+00  1.538462e+00  1.842908e+01  1.842908e+01  1.842908e+01
3.169811e+02  0.000000e+00  1.538462e+00  7.543192e+00  7.543192e+00  7.543192e+00
3.194969e+02  0.000000e+00  1.538462e+00  1.846190e+00  1.846190e+00  1.846190e+00
3.220126e+02  0.000000e+00  1.538462e+00  3.817886e-01  3.817886e-01  3.817886e-01
3.245283e+02  0.000000e+00  1.538462e+00  1.976566e-01  1.976566e-01  1.976566e-01
3.270440e+02  0.000000e+00  1.538462e+00  3.157927e-01  3.157927e-01  3.157927e-01
3.295597e+02  0.000000e+00  1.538462e+00  5.760302e-01  5.760302e-01  5.760302e-01
3.320755e+02  0.000000e+00  1.538462e+00  7.806504e-01  7.806504e-01  7.806504e-01
3.345912e+02  0.000000e+00  1.538462e+00  1.157140e+00  1.157140e+00  1.157140e+00
3.371069e+02  0.000000e+00  1.538462e+00  1.781208e+00  1.781208e+00  1.781208e+00
3.396226e+02  0.000000e+00  1.538462e+00  2.007741e+00  2.007741e+00  2.007741e+00
3.421384e+02  0.000000e+00  1.538462e+00  1.836988e+00  1.836988e+00  1.836988e+00
3.446541e+02  0.000000e+00  1.538462e+00  1.555439e+00  1.555439e+00  1.555439e+00
3.471698e+02  0.000000e+00  1.538462e+00  9.818845e-01  9.818845e-01  9.818845e-01
3.496855e+02  0.000000e+00  1.538462e+00  4.418477e-01  4.418477e-01  4.418477e-01
3.522013e+02  0.000000e+00  1.538462e+00  2.214748e-01  2.214748e-01  2.214748e-01
3.547170e+02  0.000000e+00  1.538462e+00  2.086680e-01  2.086680e-01  2.086680e-01
3.572327e+02  0.000000e+00  1.538462e+00  3.342604e-01  3.342604e-01  3.342604e-01
3.597484e+02  0.000000e+00  1.538462e+00  4.612202e-01  4.612202e-01  4.612202e-01
3.622642e+02  0.000000e+00  1.538462e+00  4.943180e-01  4.943180e-01  4.943180e-01
3.647799e+02  0.000000e+00  1.538462e+00  8.039817e-01  8.039817e-01  8.039817e-01
3.672956e+02  0.000000e+00  1.538462e+00  1.971698e+00  1.971698e+00  1.971698e+00
3.698113e+02  0.000000e+00  1.538462e+00  3.957138e+00  3.957138e+00  3.957138e+00
3.723270e+02  0.000000e+00  1.538462e+00  8.389603e+00  8.389603e+00  8.389603e+00
3.748428e+02  0.000000e+00  1.538462e+00  2.169946e+01  2.169946e+01  2.169946e+01
3.773585e+02  0.000000e+00  1.538462e+00  2.025365e+01  2.025365e+01  2.025365e+01
3.798742e+02  0.000000e+00  1.538462e+00  5.208424e+00  5.208424e+00  5.208424e+00
3.823899e+02  0.000000e+00  1.538462e+00  2.102253e+00  2.102253e+00  2.102253e+00
3.849057e+02  0.000000e+00  1.538462e+00  2.330880e+00  2.330880e+00  2.330880e+00
3.874214e+02  0.000000e+00  1.538462e+00  1.924244e+00  1.924244e+00  1.924244e+00
3.899371e+02  0.000000e+00  1.538462e+00  1.050916e+00  1.050916e+00  1.050916e+00
3.924528e+02  0.000000e+00  1.538462e+00  8.946851e-01  8.946851e-01  8.946851e-01
3.949686e+02  0.000000e+00  1.538462e+00  8.484340e-01  8.484340e-01  8.484340e-01
3.974843e+02  0.000000e+00  1.538462e+00  6.647472e-01  6.647472e-01  6.647472e-01
4.000000e+02  0.000000e+00  1.538462e+00  7.558160e-01  7.558160e-01  7.558160e-01
0.000000e+00  0.000000e+00  3.076923e+00  8.320493e-01  8.320493e-01  8.320493e-01
2.515723e+00  0.000000e+00  3.076923e+00  2.836009e+00  2.836009e+00  2.836009e+00
5.031447e+00  0.000000e+00  3.076923e+00  4.708574e+00  4.708574e+00  4.708574e+00
7.547170e+00  0.000000e+00  3.076923e+00  3.457606e+00  3.457606e+00  3.457606e+00
1.006289e+01  0.000000e+00  3.076923e+00  6.944407e+00  6.944407e+00  6.944407e+00
1.257862e+01  0.000000e+00  3.076923e+00  1.653095e+01  1.653095e+01  1.653095e+01
1.509434e+01  0.000000e+00  3.076923e+00  1.006271e+01  1.006271e+01  1.006271e+01
1.761006e+01  0.000000e+00  3.076923e+00  5.881766e+00  5.881766e+00  5.881766e+00
2.012579e+01  0.000000e+00  3.076923e+00  7.601242e+00  7.601242e+00  7.601242e+00
2.264151e+01  0.000000e+00  3.076923e+00  4.961517e+00  4.961517e+00  4.961517e+00
2.515723e+01  0.000000e+00  3.076923e+00  1.857035e+00  1.857035e+00  1.857035e+00
2.767296e+01  0.000000e+00  3.076923e+00  1.755306e+00  1.755306e+00  1.755306e+00
3.018868e+01  0.000000e+00  3.076923e+00  1.863320e+00  1.863320e+00  1.863320e+00
3.270440e+01  0.000000e+00  3.076923e+00  7.164504e-01  7.164504e-01  7.164504e-01
3.522013e+01  0.000000e+00  3.076923e+00  3.401731e-01  3.401731e-01  3.401731e-01
3.773585e+01  0.000000e+00  3.076923e+00  4.248521e-01  4.248521e-01  4.248521e-01
4.025157e+01  0.000000e+00  3.076923e+00  4.836364e-01  4.836364e-01  4.836364e-01
4.276730e+01  0.000000e+00  3.076923e+00  3.774359e-01  3.774359e-01  3.774359e-01
4.528302e+01  0.000000e+00  3.076923e+00  3.219053e-01  3.219053e-01  3.219053e-01
4.779874e+01  0.000000e+00  3.076923e+00  2.213005e-01  2.213005e-01  2.213005e-01
5.031447e+01  0.000000e+00  3.076923e+00  1.315580e-01  1.315580e-01  1.315580e-01
5.283019e+01  0.000000e+00  3.076923e+00  1.370408e-01  1.370408e-01  1.370408e-01
5.534591e+01  0.000000e+00  3.076923e+00  1.678993e-01  1.678993e-01  1.678993e-01
5.786164e+01  0.000000e+00  3.076923e+00  1.004090e-01  1.004090e-01  1.004090e-01
6.037736e+01  0.000000e+00  3.076923e+00  4.331503e-02  4.331503e-02  4.331503e-02
6.289308e+01  0.000000e+00  3.076923e+00  3.089944e-02  3.089944e-02  3.089944e-02
6.540881e+01  0.000000e+00  3.076923e+00  3.470856e-02  3.470856e-02  3.470856e-02
6.792453e+01  0.000000e+00  3.076923e+00  3.913151e-02  3.913151e-02  3.913151e-02
7.044025e+01  0.000000e+00  3.076923e+00  4.228655e-02  4.228655e-02  4.228655e-02
7.295597e+01  0.000000e+00  3.076923e+00  6.520086e-02  6.520086e-02  6.520086e-02
7.547170e+01  0.000000e+00  3.076923e+00  1.582062e-01  1.582062e-01  1.582062e-01
7.798742e+01  0.000000e+00  3.076923e+00  2.762124e-01  2.762124e-01  2.762124e-01
8.050314e+01  0.000000e+00  3.076923e+00  2.090190e-01  2.090190e-01  2.090190e-01
8.301887e+01  0.000000e+00  3.076923e+00  1.539930e-01  1.539930e-01  1.539930e-01
8.553459e+01  0.000000e+00  3.076923e+00  1.996513e-01  1.996513e-01  1.996513e-01